<?xml version="1.0" encoding="UTF-8"?>

<!-- generated on Fri Feb 28 19:42:26 2014 by SUMO sumo Version 0.19.0
<?xml version="1.0" encoding="UTF-8"?>

<configuration xmlns:xsi="http://www.w3.org/2001/XMLSchema-instance" xsi:noNamespaceSchemaLocation="http://sumo-sim.org/xsd/sumoConfiguration.xsd">

    <input>
        <net-file value="/app/Map/westend.net_A.xml"/>
        <route-files value="/app/Map/westend.rou.xml"/>
        <additional-files value="/app/Map/westend.vtype.xml,/app/Map/westend.tlLogic.xml,/app/Map/westend.induction.xml"/>
    </input>

    <output>
        <queue-output value="/app/Middleware/static/Data/queue_out.xml"/>
        <tripinfo-output value="/app/Middleware/static/Data/tripinfo_out.xml"/>
        <vehroute-output value="/app/Middleware/static/Data/routeinfo_out.xml"/>
        <save-state.prefix value="/app/Map/state"/>
    </output>

    <time>
        <begin value="0"/>
        <end value="300"/>
    </time>

    <report>
        <verbose value="true"/>
    </report>

    <traci_server>
        <remote-port value="9999"/>
    </traci_server>

    <gui_only>
        <gui-settings-file value="/app/Map/gui-settings.cfg"/>
        <start value="true"/>
    </gui_only>

</configuration>
-->

<queue-export>
    <data timestep="0.00">
        <lanes/>
    </data>
    <data timestep="1.00">
        <lanes/>
    </data>
    <data timestep="2.00">
        <lanes/>
    </data>
    <data timestep="3.00">
        <lanes/>
    </data>
    <data timestep="4.00">
        <lanes/>
    </data>
    <data timestep="5.00">
        <lanes/>
    </data>
    <data timestep="6.00">
        <lanes/>
    </data>
    <data timestep="7.00">
        <lanes/>
    </data>
    <data timestep="8.00">
        <lanes/>
    </data>
    <data timestep="9.00">
        <lanes/>
    </data>
    <data timestep="10.00">
        <lanes/>
    </data>
    <data timestep="11.00">
        <lanes/>
    </data>
    <data timestep="12.00">
        <lanes/>
    </data>
    <data timestep="13.00">
        <lanes/>
    </data>
    <data timestep="14.00">
        <lanes/>
    </data>
    <data timestep="15.00">
        <lanes/>
    </data>
    <data timestep="16.00">
        <lanes/>
    </data>
    <data timestep="17.00">
        <lanes/>
    </data>
    <data timestep="18.00">
        <lanes/>
    </data>
    <data timestep="19.00">
        <lanes/>
    </data>
    <data timestep="20.00">
        <lanes/>
    </data>
    <data timestep="21.00">
        <lanes/>
    </data>
    <data timestep="22.00">
        <lanes/>
    </data>
    <data timestep="23.00">
        <lanes/>
    </data>
    <data timestep="24.00">
        <lanes/>
    </data>
    <data timestep="25.00">
        <lanes/>
    </data>
    <data timestep="26.00">
        <lanes/>
    </data>
    <data timestep="27.00">
        <lanes/>
    </data>
    <data timestep="28.00">
        <lanes/>
    </data>
    <data timestep="29.00">
        <lanes/>
    </data>
    <data timestep="30.00">
        <lanes/>
    </data>
    <data timestep="31.00">
        <lanes/>
    </data>
    <data timestep="32.00">
        <lanes/>
    </data>
    <data timestep="33.00">
        <lanes/>
    </data>
    <data timestep="34.00">
        <lanes/>
    </data>
    <data timestep="35.00">
        <lanes/>
    </data>
    <data timestep="36.00">
        <lanes/>
    </data>
    <data timestep="37.00">
        <lanes/>
    </data>
    <data timestep="38.00">
        <lanes/>
    </data>
    <data timestep="39.00">
        <lanes>
            <lane id="19457616#3_1" queueing_time="0.00" queueing_length="0.00" queueing_length_experimental="10.92"/>
        </lanes>
    </data>
    <data timestep="40.00">
        <lanes/>
    </data>
    <data timestep="41.00">
        <lanes/>
    </data>
    <data timestep="42.00">
        <lanes/>
    </data>
    <data timestep="43.00">
        <lanes/>
    </data>
    <data timestep="44.00">
        <lanes/>
    </data>
    <data timestep="45.00">
        <lanes/>
    </data>
    <data timestep="46.00">
        <lanes/>
    </data>
    <data timestep="47.00">
        <lanes>
            <lane id="-19456327#0_0" queueing_time="0.00" queueing_length="0.00" queueing_length_experimental="13.92"/>
        </lanes>
    </data>
    <data timestep="48.00">
        <lanes/>
    </data>
    <data timestep="49.00">
        <lanes/>
    </data>
    <data timestep="50.00">
        <lanes/>
    </data>
    <data timestep="51.00">
        <lanes/>
    </data>
    <data timestep="52.00">
        <lanes/>
    </data>
    <data timestep="53.00">
        <lanes/>
    </data>
    <data timestep="54.00">
        <lanes/>
    </data>
    <data timestep="55.00">
        <lanes/>
    </data>
    <data timestep="56.00">
        <lanes/>
    </data>
    <data timestep="57.00">
        <lanes/>
    </data>
    <data timestep="58.00">
        <lanes>
            <lane id="19479459#3_0" queueing_time="0.00" queueing_length="0.00" queueing_length_experimental="13.85"/>
        </lanes>
    </data>
    <data timestep="59.00">
        <lanes/>
    </data>
    <data timestep="60.00">
        <lanes/>
    </data>
    <data timestep="61.00">
        <lanes/>
    </data>
    <data timestep="62.00">
        <lanes/>
    </data>
    <data timestep="63.00">
        <lanes/>
    </data>
    <data timestep="64.00">
        <lanes/>
    </data>
    <data timestep="65.00">
        <lanes/>
    </data>
    <data timestep="66.00">
        <lanes/>
    </data>
    <data timestep="67.00">
        <lanes/>
    </data>
    <data timestep="68.00">
        <lanes/>
    </data>
    <data timestep="69.00">
        <lanes/>
    </data>
    <data timestep="70.00">
        <lanes>
            <lane id="-19481746#4_0" queueing_time="0.00" queueing_length="0.00" queueing_length_experimental="9.94"/>
        </lanes>
    </data>
    <data timestep="71.00">
        <lanes/>
    </data>
    <data timestep="72.00">
        <lanes/>
    </data>
    <data timestep="73.00">
        <lanes/>
    </data>
    <data timestep="74.00">
        <lanes/>
    </data>
    <data timestep="75.00">
        <lanes/>
    </data>
    <data timestep="76.00">
        <lanes/>
    </data>
    <data timestep="77.00">
        <lanes/>
    </data>
    <data timestep="78.00">
        <lanes/>
    </data>
    <data timestep="79.00">
        <lanes/>
    </data>
    <data timestep="80.00">
        <lanes/>
    </data>
    <data timestep="81.00">
        <lanes/>
    </data>
    <data timestep="82.00">
        <lanes/>
    </data>
    <data timestep="83.00">
        <lanes/>
    </data>
    <data timestep="84.00">
        <lanes>
            <lane id="60820953_0" queueing_time="0.00" queueing_length="0.00" queueing_length_experimental="12.05"/>
        </lanes>
    </data>
    <data timestep="85.00">
        <lanes/>
    </data>
    <data timestep="86.00">
        <lanes/>
    </data>
    <data timestep="87.00">
        <lanes/>
    </data>
    <data timestep="88.00">
        <lanes/>
    </data>
    <data timestep="89.00">
        <lanes/>
    </data>
    <data timestep="90.00">
        <lanes/>
    </data>
    <data timestep="91.00">
        <lanes/>
    </data>
    <data timestep="92.00">
        <lanes/>
    </data>
    <data timestep="93.00">
        <lanes>
            <lane id="-60820953_0" queueing_time="0.00" queueing_length="0.00" queueing_length_experimental="9.34"/>
            <lane id="19478513#0_0" queueing_time="0.00" queueing_length="0.00" queueing_length_experimental="14.09"/>
        </lanes>
    </data>
    <data timestep="94.00">
        <lanes>
            <lane id="-60820953_0" queueing_time="0.00" queueing_length="0.00" queueing_length_experimental="9.07"/>
        </lanes>
    </data>
    <data timestep="95.00">
        <lanes>
            <lane id="-19469820#6_0" queueing_time="0.00" queueing_length="0.00" queueing_length_experimental="11.80"/>
            <lane id="-60820953_0" queueing_time="0.00" queueing_length="0.00" queueing_length_experimental="8.71"/>
        </lanes>
    </data>
    <data timestep="96.00">
        <lanes>
            <lane id="-19469820#6_0" queueing_time="0.00" queueing_length="0.00" queueing_length_experimental="11.40"/>
            <lane id="-60820953_0" queueing_time="0.00" queueing_length="0.00" queueing_length_experimental="7.80"/>
            <lane id="19485812#3_0" queueing_time="0.00" queueing_length="0.00" queueing_length_experimental="14.10"/>
        </lanes>
    </data>
    <data timestep="97.00">
        <lanes/>
    </data>
    <data timestep="98.00">
        <lanes/>
    </data>
    <data timestep="99.00">
        <lanes/>
    </data>
    <data timestep="100.00">
        <lanes/>
    </data>
    <data timestep="101.00">
        <lanes/>
    </data>
    <data timestep="102.00">
        <lanes/>
    </data>
    <data timestep="103.00">
        <lanes/>
    </data>
    <data timestep="104.00">
        <lanes/>
    </data>
    <data timestep="105.00">
        <lanes/>
    </data>
    <data timestep="106.00">
        <lanes>
            <lane id="60820953_0" queueing_time="0.00" queueing_length="0.00" queueing_length_experimental="19.53"/>
        </lanes>
    </data>
    <data timestep="107.00">
        <lanes>
            <lane id="60820953_0" queueing_time="0.00" queueing_length="0.00" queueing_length_experimental="19.13"/>
        </lanes>
    </data>
    <data timestep="108.00">
        <lanes>
            <lane id="19457616#5_1" queueing_time="0.00" queueing_length="0.00" queueing_length_experimental="13.53"/>
        </lanes>
    </data>
    <data timestep="109.00">
        <lanes/>
    </data>
    <data timestep="110.00">
        <lanes/>
    </data>
    <data timestep="111.00">
        <lanes/>
    </data>
    <data timestep="112.00">
        <lanes/>
    </data>
    <data timestep="113.00">
        <lanes/>
    </data>
    <data timestep="114.00">
        <lanes/>
    </data>
    <data timestep="115.00">
        <lanes/>
    </data>
    <data timestep="116.00">
        <lanes/>
    </data>
    <data timestep="117.00">
        <lanes/>
    </data>
    <data timestep="118.00">
        <lanes/>
    </data>
    <data timestep="119.00">
        <lanes/>
    </data>
    <data timestep="120.00">
        <lanes/>
    </data>
    <data timestep="121.00">
        <lanes/>
    </data>
    <data timestep="122.00">
        <lanes/>
    </data>
    <data timestep="123.00">
        <lanes>
            <lane id="19455521_0" queueing_time="0.00" queueing_length="0.00" queueing_length_experimental="8.90"/>
        </lanes>
    </data>
    <data timestep="124.00">
        <lanes>
            <lane id="19455521_0" queueing_time="0.00" queueing_length="0.00" queueing_length_experimental="7.78"/>
        </lanes>
    </data>
    <data timestep="125.00">
        <lanes>
            <lane id="19455521_0" queueing_time="0.00" queueing_length="0.00" queueing_length_experimental="7.05"/>
        </lanes>
    </data>
    <data timestep="126.00">
        <lanes/>
    </data>
    <data timestep="127.00">
        <lanes>
            <lane id="19454055#0_0" queueing_time="0.00" queueing_length="0.00" queueing_length_experimental="13.22"/>
            <lane id="19485812#3_0" queueing_time="0.00" queueing_length="0.00" queueing_length_experimental="12.40"/>
        </lanes>
    </data>
    <data timestep="128.00">
        <lanes>
            <lane id="19485812#3_0" queueing_time="0.00" queueing_length="0.00" queueing_length_experimental="11.67"/>
        </lanes>
    </data>
    <data timestep="129.00">
        <lanes/>
    </data>
    <data timestep="130.00">
        <lanes/>
    </data>
    <data timestep="131.00">
        <lanes/>
    </data>
    <data timestep="132.00">
        <lanes/>
    </data>
    <data timestep="133.00">
        <lanes>
            <lane id="-19456327#1_0" queueing_time="0.00" queueing_length="0.00" queueing_length_experimental="7.44"/>
        </lanes>
    </data>
    <data timestep="134.00">
        <lanes>
            <lane id="-19456327#1_0" queueing_time="0.00" queueing_length="0.00" queueing_length_experimental="6.31"/>
        </lanes>
    </data>
    <data timestep="135.00">
        <lanes>
            <lane id="-19456327#1_0" queueing_time="0.00" queueing_length="0.00" queueing_length_experimental="6.05"/>
            <lane id="-19481746#4_0" queueing_time="0.00" queueing_length="0.00" queueing_length_experimental="6.83"/>
        </lanes>
    </data>
    <data timestep="136.00">
        <lanes>
            <lane id="-19456327#1_0" queueing_time="0.00" queueing_length="0.00" queueing_length_experimental="5.84"/>
            <lane id="-19481746#4_0" queueing_time="0.00" queueing_length="0.00" queueing_length_experimental="6.44"/>
        </lanes>
    </data>
    <data timestep="137.00">
        <lanes>
            <lane id="-19456327#1_0" queueing_time="0.00" queueing_length="0.00" queueing_length_experimental="5.58"/>
            <lane id="-19481746#4_0" queueing_time="0.00" queueing_length="0.00" queueing_length_experimental="6.03"/>
        </lanes>
    </data>
    <data timestep="138.00">
        <lanes>
            <lane id="-19481746#4_0" queueing_time="0.00" queueing_length="0.00" queueing_length_experimental="5.63"/>
        </lanes>
    </data>
    <data timestep="139.00">
        <lanes>
            <lane id="-19481746#4_0" queueing_time="1.00" queueing_length="5.57" queueing_length_experimental="5.57"/>
        </lanes>
    </data>
    <data timestep="140.00">
        <lanes>
            <lane id="-19481746#4_0" queueing_time="2.00" queueing_length="5.55" queueing_length_experimental="5.55"/>
            <lane id="-19485346#0_0" queueing_time="1.00" queueing_length="8.39" queueing_length_experimental="8.39"/>
        </lanes>
    </data>
    <data timestep="141.00">
        <lanes>
            <lane id="-19481746#4_0" queueing_time="3.00" queueing_length="5.55" queueing_length_experimental="5.55"/>
            <lane id="-19485346#0_0" queueing_time="2.00" queueing_length="8.31" queueing_length_experimental="8.31"/>
        </lanes>
    </data>
    <data timestep="142.00">
        <lanes>
            <lane id="-19481746#4_0" queueing_time="4.00" queueing_length="5.55" queueing_length_experimental="5.55"/>
            <lane id="-19485346#0_0" queueing_time="0.00" queueing_length="0.00" queueing_length_experimental="8.12"/>
        </lanes>
    </data>
    <data timestep="143.00">
        <lanes>
            <lane id="-19481746#4_0" queueing_time="5.00" queueing_length="5.55" queueing_length_experimental="5.55"/>
        </lanes>
    </data>
    <data timestep="144.00">
        <lanes/>
    </data>
    <data timestep="145.00">
        <lanes>
            <lane id="19455521_0" queueing_time="0.00" queueing_length="0.00" queueing_length_experimental="6.81"/>
        </lanes>
    </data>
    <data timestep="146.00">
        <lanes/>
    </data>
    <data timestep="147.00">
        <lanes/>
    </data>
    <data timestep="148.00">
        <lanes/>
    </data>
    <data timestep="149.00">
        <lanes/>
    </data>
    <data timestep="150.00">
        <lanes/>
    </data>
    <data timestep="151.00">
        <lanes/>
    </data>
    <data timestep="152.00">
        <lanes/>
    </data>
    <data timestep="153.00">
        <lanes>
            <lane id="-19457616#4_1" queueing_time="0.00" queueing_length="0.00" queueing_length_experimental="9.55"/>
        </lanes>
    </data>
    <data timestep="154.00">
        <lanes>
            <lane id="-19457616#4_1" queueing_time="0.00" queueing_length="0.00" queueing_length_experimental="8.92"/>
        </lanes>
    </data>
    <data timestep="155.00">
        <lanes>
            <lane id="-19457616#4_1" queueing_time="0.00" queueing_length="0.00" queueing_length_experimental="7.95"/>
        </lanes>
    </data>
    <data timestep="156.00">
        <lanes>
            <lane id="-19457616#4_1" queueing_time="1.00" queueing_length="7.90" queueing_length_experimental="7.90"/>
        </lanes>
    </data>
    <data timestep="157.00">
        <lanes>
            <lane id="-19457616#4_1" queueing_time="0.00" queueing_length="0.00" queueing_length_experimental="6.97"/>
        </lanes>
    </data>
    <data timestep="158.00">
        <lanes>
            <lane id="-19457616#4_1" queueing_time="0.00" queueing_length="0.00" queueing_length_experimental="6.18"/>
        </lanes>
    </data>
    <data timestep="159.00">
        <lanes>
            <lane id="-19457616#4_1" queueing_time="0.00" queueing_length="0.00" queueing_length_experimental="5.99"/>
            <lane id="19459879#0_0" queueing_time="0.00" queueing_length="0.00" queueing_length_experimental="11.26"/>
        </lanes>
    </data>
    <data timestep="160.00">
        <lanes>
            <lane id="-19456327#1_0" queueing_time="0.00" queueing_length="0.00" queueing_length_experimental="8.25"/>
            <lane id="19485710#0_0" queueing_time="0.00" queueing_length="0.00" queueing_length_experimental="12.21"/>
        </lanes>
    </data>
    <data timestep="161.00">
        <lanes>
            <lane id="-19456327#1_0" queueing_time="0.00" queueing_length="0.00" queueing_length_experimental="7.52"/>
            <lane id="19459879#0_0" queueing_time="0.00" queueing_length="0.00" queueing_length_experimental="9.21"/>
        </lanes>
    </data>
    <data timestep="162.00">
        <lanes>
            <lane id="-19456327#1_0" queueing_time="0.00" queueing_length="0.00" queueing_length_experimental="7.17"/>
        </lanes>
    </data>
    <data timestep="163.00">
        <lanes>
            <lane id=":202289835_8_0" queueing_time="0.00" queueing_length="0.00" queueing_length_experimental="7.85"/>
            <lane id="-19456327#1_0" queueing_time="1.00" queueing_length="7.17" queueing_length_experimental="7.17"/>
        </lanes>
    </data>
    <data timestep="164.00">
        <lanes>
            <lane id=":202289835_8_0" queueing_time="0.00" queueing_length="0.00" queueing_length_experimental="6.71"/>
            <lane id="-19456327#1_0" queueing_time="2.00" queueing_length="7.13" queueing_length_experimental="7.13"/>
        </lanes>
    </data>
    <data timestep="165.00">
        <lanes>
            <lane id=":202289835_8_0" queueing_time="0.00" queueing_length="0.00" queueing_length_experimental="6.55"/>
            <lane id="-19456327#1_0" queueing_time="3.00" queueing_length="7.08" queueing_length_experimental="7.08"/>
        </lanes>
    </data>
    <data timestep="166.00">
        <lanes>
            <lane id=":202289835_8_0" queueing_time="0.00" queueing_length="0.00" queueing_length_experimental="6.43"/>
            <lane id="-19456327#1_0" queueing_time="4.00" queueing_length="7.07" queueing_length_experimental="7.07"/>
        </lanes>
    </data>
    <data timestep="167.00">
        <lanes>
            <lane id=":202289835_8_0" queueing_time="0.00" queueing_length="0.00" queueing_length_experimental="6.30"/>
            <lane id="-19456327#1_0" queueing_time="5.00" queueing_length="7.07" queueing_length_experimental="7.07"/>
        </lanes>
    </data>
    <data timestep="168.00">
        <lanes>
            <lane id=":202289835_8_0" queueing_time="1.00" queueing_length="6.22" queueing_length_experimental="6.22"/>
            <lane id="-19456327#1_0" queueing_time="6.00" queueing_length="7.07" queueing_length_experimental="7.07"/>
        </lanes>
    </data>
    <data timestep="169.00">
        <lanes>
            <lane id=":202306532_16_0" queueing_time="0.00" queueing_length="0.00" queueing_length_experimental="6.47"/>
            <lane id="-19456327#1_0" queueing_time="7.00" queueing_length="7.07" queueing_length_experimental="7.07"/>
            <lane id="19457616#3_1" queueing_time="0.00" queueing_length="0.00" queueing_length_experimental="7.23"/>
        </lanes>
    </data>
    <data timestep="170.00">
        <lanes>
            <lane id="-19456327#1_0" queueing_time="8.00" queueing_length="7.07" queueing_length_experimental="7.07"/>
            <lane id="19456327#0_0" queueing_time="1.00" queueing_length="12.21" queueing_length_experimental="12.21"/>
        </lanes>
    </data>
    <data timestep="171.00">
        <lanes>
            <lane id="-19456327#1_0" queueing_time="9.00" queueing_length="7.07" queueing_length_experimental="7.07"/>
            <lane id="19456327#0_0" queueing_time="0.00" queueing_length="0.00" queueing_length_experimental="11.62"/>
        </lanes>
    </data>
    <data timestep="172.00">
        <lanes>
            <lane id="19456327#0_0" queueing_time="0.00" queueing_length="0.00" queueing_length_experimental="10.34"/>
        </lanes>
    </data>
    <data timestep="173.00">
        <lanes/>
    </data>
    <data timestep="174.00">
        <lanes>
            <lane id="19456327#0_0" queueing_time="0.00" queueing_length="0.00" queueing_length_experimental="7.35"/>
        </lanes>
    </data>
    <data timestep="175.00">
        <lanes>
            <lane id="19456327#0_0" queueing_time="1.00" queueing_length="7.25" queueing_length_experimental="7.25"/>
            <lane id="19459879#1_0" queueing_time="0.00" queueing_length="0.00" queueing_length_experimental="12.26"/>
        </lanes>
    </data>
    <data timestep="176.00">
        <lanes>
            <lane id="19456327#0_0" queueing_time="0.00" queueing_length="0.00" queueing_length_experimental="7.14"/>
        </lanes>
    </data>
    <data timestep="177.00">
        <lanes>
            <lane id="19456327#0_0" queueing_time="1.00" queueing_length="7.14" queueing_length_experimental="7.14"/>
        </lanes>
    </data>
    <data timestep="178.00">
        <lanes>
            <lane id="-19469825#0_0" queueing_time="0.00" queueing_length="0.00" queueing_length_experimental="14.43"/>
            <lane id="19456327#0_0" queueing_time="2.00" queueing_length="7.09" queueing_length_experimental="7.09"/>
        </lanes>
    </data>
    <data timestep="179.00">
        <lanes>
            <lane id="19440910_0" queueing_time="0.00" queueing_length="0.00" queueing_length_experimental="12.74"/>
            <lane id="19456327#0_0" queueing_time="3.00" queueing_length="7.08" queueing_length_experimental="7.08"/>
        </lanes>
    </data>
    <data timestep="180.00">
        <lanes>
            <lane id="-19469828#0_0" queueing_time="0.00" queueing_length="0.00" queueing_length_experimental="7.82"/>
            <lane id="19456179#4_1" queueing_time="1.00" queueing_length="6.02" queueing_length_experimental="6.02"/>
            <lane id="19456327#0_0" queueing_time="4.00" queueing_length="7.08" queueing_length_experimental="7.08"/>
        </lanes>
    </data>
    <data timestep="181.00">
        <lanes>
            <lane id="-19469828#0_0" queueing_time="0.00" queueing_length="0.00" queueing_length_experimental="6.75"/>
            <lane id="19456179#4_1" queueing_time="0.00" queueing_length="0.00" queueing_length_experimental="5.84"/>
        </lanes>
    </data>
    <data timestep="182.00">
        <lanes>
            <lane id="-19469828#0_0" queueing_time="0.00" queueing_length="0.00" queueing_length_experimental="5.96"/>
        </lanes>
    </data>
    <data timestep="183.00">
        <lanes/>
    </data>
    <data timestep="184.00">
        <lanes/>
    </data>
    <data timestep="185.00">
        <lanes/>
    </data>
    <data timestep="186.00">
        <lanes/>
    </data>
    <data timestep="187.00">
        <lanes/>
    </data>
    <data timestep="188.00">
        <lanes>
            <lane id="-19485718_0" queueing_time="0.00" queueing_length="0.00" queueing_length_experimental="12.36"/>
            <lane id="19467482_0" queueing_time="0.00" queueing_length="0.00" queueing_length_experimental="12.21"/>
        </lanes>
    </data>
    <data timestep="189.00">
        <lanes>
            <lane id="19467482_0" queueing_time="0.00" queueing_length="0.00" queueing_length_experimental="11.72"/>
        </lanes>
    </data>
    <data timestep="190.00">
        <lanes>
            <lane id="19454685#6_0" queueing_time="0.00" queueing_length="0.00" queueing_length_experimental="12.41"/>
            <lane id="19481746#4_0" queueing_time="0.00" queueing_length="0.00" queueing_length_experimental="6.09"/>
        </lanes>
    </data>
    <data timestep="191.00">
        <lanes>
            <lane id="19481746#4_0" queueing_time="0.00" queueing_length="0.00" queueing_length_experimental="5.61"/>
        </lanes>
    </data>
    <data timestep="192.00">
        <lanes>
            <lane id="19454685#6_0" queueing_time="0.00" queueing_length="0.00" queueing_length_experimental="10.05"/>
            <lane id="19481746#4_0" queueing_time="1.00" queueing_length="5.55" queueing_length_experimental="5.55"/>
        </lanes>
    </data>
    <data timestep="193.00">
        <lanes>
            <lane id="19454685#6_0" queueing_time="0.00" queueing_length="0.00" queueing_length_experimental="9.92"/>
            <lane id="19481746#4_0" queueing_time="2.00" queueing_length="5.55" queueing_length_experimental="5.55"/>
        </lanes>
    </data>
    <data timestep="194.00">
        <lanes>
            <lane id="19481746#4_0" queueing_time="3.00" queueing_length="5.55" queueing_length_experimental="5.55"/>
        </lanes>
    </data>
    <data timestep="195.00">
        <lanes>
            <lane id="19481746#4_0" queueing_time="4.00" queueing_length="5.55" queueing_length_experimental="5.55"/>
        </lanes>
    </data>
    <data timestep="196.00">
        <lanes/>
    </data>
    <data timestep="197.00">
        <lanes/>
    </data>
    <data timestep="198.00">
        <lanes/>
    </data>
    <data timestep="199.00">
        <lanes>
            <lane id="-19481746#4_0" queueing_time="0.00" queueing_length="0.00" queueing_length_experimental="12.54"/>
        </lanes>
    </data>
    <data timestep="200.00">
        <lanes>
            <lane id="-19456327#1_0" queueing_time="0.00" queueing_length="0.00" queueing_length_experimental="12.19"/>
        </lanes>
    </data>
    <data timestep="201.00">
        <lanes>
            <lane id="-19478513#0_0" queueing_time="0.00" queueing_length="0.00" queueing_length_experimental="8.76"/>
        </lanes>
    </data>
    <data timestep="202.00">
        <lanes>
            <lane id="-19456327#1_0" queueing_time="0.00" queueing_length="0.00" queueing_length_experimental="9.70"/>
            <lane id="-19478513#0_0" queueing_time="0.00" queueing_length="0.00" queueing_length_experimental="8.05"/>
            <lane id="19479452#1_0" queueing_time="0.00" queueing_length="0.00" queueing_length_experimental="12.62"/>
        </lanes>
    </data>
    <data timestep="203.00">
        <lanes>
            <lane id="-19456327#1_0" queueing_time="0.00" queueing_length="0.00" queueing_length_experimental="9.42"/>
            <lane id="-19478513#0_0" queueing_time="0.00" queueing_length="0.00" queueing_length_experimental="7.37"/>
            <lane id="-19485346#0_0" queueing_time="0.00" queueing_length="0.00" queueing_length_experimental="11.62"/>
        </lanes>
    </data>
    <data timestep="204.00">
        <lanes>
            <lane id="-19456327#1_0" queueing_time="0.00" queueing_length="0.00" queueing_length_experimental="8.90"/>
            <lane id="19456183_0" queueing_time="0.00" queueing_length="0.00" queueing_length_experimental="14.13"/>
            <lane id="19479452#1_0" queueing_time="0.00" queueing_length="0.00" queueing_length_experimental="9.64"/>
        </lanes>
    </data>
    <data timestep="205.00">
        <lanes>
            <lane id="-19456327#1_0" queueing_time="0.00" queueing_length="0.00" queueing_length_experimental="8.76"/>
            <lane id="-19485346#0_0" queueing_time="0.00" queueing_length="0.00" queueing_length_experimental="7.78"/>
        </lanes>
    </data>
    <data timestep="206.00">
        <lanes>
            <lane id="-19456327#1_0" queueing_time="1.00" queueing_length="8.75" queueing_length_experimental="8.75"/>
        </lanes>
    </data>
    <data timestep="207.00">
        <lanes>
            <lane id="-19456327#1_0" queueing_time="2.00" queueing_length="8.72" queueing_length_experimental="8.72"/>
        </lanes>
    </data>
    <data timestep="208.00">
        <lanes>
            <lane id="-19456327#1_0" queueing_time="3.00" queueing_length="8.63" queueing_length_experimental="8.63"/>
            <lane id="-19481746#3_0" queueing_time="0.00" queueing_length="0.00" queueing_length_experimental="7.24"/>
        </lanes>
    </data>
    <data timestep="209.00">
        <lanes>
            <lane id="-19456327#1_0" queueing_time="4.00" queueing_length="8.62" queueing_length_experimental="8.62"/>
        </lanes>
    </data>
    <data timestep="210.00">
        <lanes>
            <lane id="-19456327#1_0" queueing_time="5.00" queueing_length="8.60" queueing_length_experimental="8.60"/>
        </lanes>
    </data>
    <data timestep="211.00">
        <lanes>
            <lane id="-19456327#1_0" queueing_time="6.00" queueing_length="8.60" queueing_length_experimental="8.60"/>
            <lane id="120254976#3_2" queueing_time="0.00" queueing_length="0.00" queueing_length_experimental="13.89"/>
        </lanes>
    </data>
    <data timestep="212.00">
        <lanes>
            <lane id="-19456327#1_0" queueing_time="7.00" queueing_length="8.60" queueing_length_experimental="8.60"/>
        </lanes>
    </data>
    <data timestep="213.00">
        <lanes>
            <lane id="-19456327#1_0" queueing_time="8.00" queueing_length="8.60" queueing_length_experimental="8.60"/>
        </lanes>
    </data>
    <data timestep="214.00">
        <lanes>
            <lane id="-19456327#1_0" queueing_time="9.00" queueing_length="8.60" queueing_length_experimental="8.60"/>
        </lanes>
    </data>
    <data timestep="215.00">
        <lanes>
            <lane id="-19456327#1_0" queueing_time="10.00" queueing_length="8.60" queueing_length_experimental="8.60"/>
        </lanes>
    </data>
    <data timestep="216.00">
        <lanes>